Program Version,EnergyPlus, Version 8.3.0-6d97d074ea, YMD=2020.01.15 06:28
1,5,Environment Title[],Latitude[deg],Longitude[deg],Time Zone[],Elevation[m]
2,6,Day of Simulation[],Month[],Day of Month[],DST Indicator[1=yes 0=no],Hour[],StartMinute[],EndMinute[],DayType
3,3,Cumulative Day of Simulation[],Month[],Day of Month[],DST Indicator[1=yes 0=no],DayType  ! When Daily Meters Requested
4,2,Cumulative Days of Simulation[],Month[]  ! When Monthly Meters Requested
5,1,Cumulative Days of Simulation[] ! When Run Period Meters Requested
28,9,Electricity:Facility [J] !Monthly  [Value,Min,Day,Hour,Minute,Max,Day,Hour,Minute]
676,9,Gas:Facility [J] !Monthly  [Value,Min,Day,Hour,Minute,Max,Day,Hour,Minute]
492,9,InteriorEquipment:Electricity [J] !Monthly  [Value,Min,Day,Hour,Minute,Max,Day,Hour,Minute]
58,9,InteriorLights:Electricity [J] !Monthly  [Value,Min,Day,Hour,Minute,Max,Day,Hour,Minute]
29,11,Electricity:Facility [J] !RunPeriod [Value,Min,Month,Day,Hour,Minute,Max,Month,Day,Hour,Minute]
677,11,Gas:Facility [J] !RunPeriod [Value,Min,Month,Day,Hour,Minute,Max,Month,Day,Hour,Minute]
493,11,InteriorEquipment:Electricity [J] !RunPeriod [Value,Min,Month,Day,Hour,Minute,Max,Month,Day,Hour,Minute]
59,11,InteriorLights:Electricity [J] !RunPeriod [Value,Min,Month,Day,Hour,Minute,Max,Month,Day,Hour,Minute]
1730,9,DistrictCooling:Facility [J] !Monthly  [Value,Min,Day,Hour,Minute,Max,Day,Hour,Minute]
1542,9,DistrictHeating:Facility [J] !Monthly  [Value,Min,Day,Hour,Minute,Max,Day,Hour,Minute]
1771,9,Carbon Equivalent:Facility [kg] !Monthly  [Value,Min,Day,Hour,Minute,Max,Day,Hour,Minute]
1731,11,DistrictCooling:Facility [J] !RunPeriod [Value,Min,Month,Day,Hour,Minute,Max,Month,Day,Hour,Minute]
1543,11,DistrictHeating:Facility [J] !RunPeriod [Value,Min,Month,Day,Hour,Minute,Max,Month,Day,Hour,Minute]
1772,11,Carbon Equivalent:Facility [kg] !RunPeriod [Value,Min,Month,Day,Hour,Minute,Max,Month,Day,Hour,Minute]
End of Data Dictionary
1,CASESTUDY-THESIS,  36.24,  50.05,   3.50,1275.30
4,31, 1
28,1325945915.45999,230247.36, 1, 1,15,4370248.08, 3,11,30
58,456406875.359998,0.0, 1, 1,15,3009099.78, 2,19,45
492,869539040.100036,230247.36, 1, 1,15,4370248.08, 3,11,30
676,1640358643.14002,0.0, 1, 1,15,2519752.14, 1, 8,30
1542,21144201892.6317,2614297.55100686,14,14,45,14841091.6178931,29, 8,30
1730,0.0,0.0, 1, 1,15,0.0, 1, 1,15
1771,0.0,0.0, 1, 1,15,0.0, 1, 1,15
4,59, 2
28,1208807670.96,230247.36, 1, 1,15,4370248.08, 3,11,30
58,421004596.319998,0.0, 1, 1,15,3009099.78, 1,19,45
492,787803074.640031,230247.36, 1, 1,15,4370248.08, 3,11,30
676,1481614258.32001,0.0, 1, 1,15,2519752.14, 1, 8,30
1542,16597988917.2346,714474.815867312,23,19,15,14706218.5021614,19, 8,15
1730,0.0,0.0, 1, 1,15,0.0, 1, 1,15
1771,0.0,0.0, 1, 1,15,0.0, 1, 1,15
4,90, 3
28,1336347931.13998,230247.36, 1, 1,15,4370248.08, 3,11,30
58,466808891.039997,0.0, 1, 1,15,3009099.78, 1,19,45
492,869539040.100036,230247.36, 1, 1,15,4370248.08, 3,11,30
676,1640358643.14002,0.0, 1, 1,15,2519752.14, 1, 8,30
1542,11164382852.4716,0.0, 7,21,45,12903034.5045918,25,14,15
1730,0.0,0.0, 1, 1,15,0.0, 1, 1,15
1771,0.0,0.0, 1, 1,15,0.0, 1, 1,15
4,120, 4
28,1465786058.58004,287809.2, 1, 1,15,4427809.92, 1,11,30
58,453382592.759998,0.0, 1, 1,15,3009099.78, 3,19,45
492,1012403465.82004,287809.2, 1, 1,15,4427809.92, 1,11,30
676,1587443848.20002,0.0, 1, 1,15,2519752.14, 1, 8,30
1542,7927852528.02463,0.0, 6,21,45,12792270.4595041, 3, 8,15
1730,0.0,0.0, 1, 1,15,0.0, 1, 1,15
1771,0.0,0.0, 1, 1,15,0.0, 1, 1,15
4,151, 5
28,1507651966.98004,287809.2, 1, 1,15,4427809.92, 2,11,30
58,466808891.039998,0.0, 1, 1,15,3009099.78, 1,19,45
492,1040843075.94005,287809.2, 1, 1,15,4427809.92, 2,11,30
676,1640358643.14002,0.0, 1, 1,15,2519752.14, 1, 8,30
1542,2125533759.18754,0.0, 1, 1,15,3566331.81071734, 4,20,45
1730,0.0,0.0, 1, 1,15,0.0, 1, 1,15
1771,0.0,0.0, 1, 1,15,0.0, 1, 1,15
4,181, 6
28,1458047139.30004,287809.2, 1, 1,15,4427809.92, 2,11,30
58,448073454.239998,0.0, 1, 1,15,3009099.78, 2,19,45
492,1009973685.06004,287809.2, 1, 1,15,4427809.92, 2,11,30
676,1587443848.20002,0.0, 1, 1,15,2519752.14, 1, 8,30
1542,2054207122.97319,0.0, 1, 1,15,3566331.81071734, 2, 8,30
1730,5633706916.39525,0.0, 1, 3,30,10692254.6229297, 9,20,30
1771,0.0,0.0, 1, 1,15,0.0, 1, 1,15
4,212, 7
28,1516956488.28005,287809.2, 1, 1,15,4427809.92, 1,11,30
58,472118029.559998,0.0, 1, 1,15,3009099.78, 3,19,45
492,1044838458.72005,287809.2, 1, 1,15,4427809.92, 1,11,30
676,1640358643.14002,0.0, 1, 1,15,2519752.14, 1, 8,30
1542,2104135768.32323,0.0, 1, 1,15,3566331.81071734, 3, 7,45
1730,10150585323.6137,0.0, 1, 8,15,13017835.2485304,22,20,30
1771,0.0,0.0, 1, 1,15,0.0, 1, 1,15
4,243, 8
28,1497249951.30004,287809.2, 1, 1,15,4427809.92, 1,11,30
58,456406875.359998,0.0, 1, 1,15,3009099.78, 2,19,45
492,1040843075.94005,287809.2, 1, 1,15,4427809.92, 1,11,30
676,1640358643.14002,0.0, 1, 1,15,2519752.14, 1, 8,30
1542,2125533759.18754,0.0, 1, 1,15,3566331.81071734, 1, 8,30
1730,8566305818.51425,0.0, 1, 8,15,12897105.6890559, 7,20,30
1771,0.0,0.0, 1, 1,15,0.0, 1, 1,15
4,273, 9
28,1480328074.98004,287809.2, 1, 1,15,4427809.92, 1,11,30
58,463784608.439998,0.0, 1, 1,15,3009099.78, 1,19,45
492,1016543466.54004,287809.2, 1, 1,15,4427809.92, 1,11,30
676,1587443848.20002,0.0, 1, 1,15,2519752.14, 1, 8,30
1542,2032809132.10889,0.0, 1, 1,15,3566331.81071734, 3, 8,30
1730,0.0,0.0, 1, 1,15,0.0, 1, 1,15
1771,0.0,0.0, 1, 1,15,0.0, 1, 1,15
4,304,10
28,1325945915.45999,230247.36, 1, 1,15,4370248.08, 3,11,30
58,456406875.359998,0.0, 1, 1,15,3009099.78, 2,19,45
492,869539040.100036,230247.36, 1, 1,15,4370248.08, 3,11,30
676,1640358643.14002,0.0, 1, 1,15,2519752.14, 1, 8,30
1542,4849515111.89324,0.0, 1, 9,45,10292093.2999008, 6, 8,15
1730,0.0,0.0, 1, 1,15,0.0, 1, 1,15
1771,0.0,0.0, 1, 1,15,0.0, 1, 1,15
4,334,11
28,1288129039.37999,230247.36, 1, 1,15,4370248.08, 3,11,30
58,448073454.239998,0.0, 1, 1,15,3009099.78, 1,19,45
492,840055585.140034,230247.36, 1, 1,15,4370248.08, 3,11,30
676,1587443848.20002,0.0, 1, 1,15,2519752.14, 1, 8,30
1542,13102919745.6734,0.0, 1, 1,15,11791865.7730651,21, 8,15
1730,0.0,0.0, 1, 1,15,0.0, 1, 1,15
1771,0.0,0.0, 1, 1,15,0.0, 1, 1,15
4,365,12
28,1348226851.13998,230247.36, 1, 1,15,4370248.08, 1,11,30
58,472118029.559998,0.0, 1, 1,15,3009099.78, 1,19,45
492,876108821.580037,230247.36, 1, 1,15,4370248.08, 1,11,30
676,1640358643.14002,0.0, 1, 1,15,2519752.14, 1, 8,30
1542,20169237632.7309,2193759.40025856, 6,21,45,15120173.5468672,17, 8,30
1730,0.0,0.0, 1, 1,15,0.0, 1, 1,15
1771,0.0,0.0, 1, 1,15,0.0, 1, 1,15
5,365
29,16759423002.9673,230247.36, 1, 1, 1,15,4427809.92, 4, 1,11,30
59,5481393173.27996,0.0, 1, 1, 1,15,3009099.78, 1, 2,19,45
493,11278029829.6815,230247.36, 1, 1, 1,15,4427809.92, 4, 1,11,30
677,19313900153.0979,0.0, 1, 1, 1,15,2519752.14, 1, 1, 8,30
1543,105398318222.432,0.0, 3, 7,21,45,15120173.5468672,12,17, 8,30
1731,24350598058.5232,0.0, 1, 1, 1,15,13017835.2485304, 7,22,20,30
1772,0.0,0.0, 1, 1, 1,15,0.0, 1, 1, 1,15
End of Data
 Number of Records Written=          91
